Lammps data file for solvated polymer at lengthscale N = 25 monomers, H20_rho = 1.00 g/cc, temperature = 298 K    

60 atoms         
59 bonds                
58 angles               
0 dihedrals
0 impropers

1 atom types           
1 bond types          
1 angle types         

-80 80 xlo xhi
-80 80 ylo yhi
-80 80 zlo zhi

Masses

1 16.0427

Atoms

1 1 1 0.000000 14.990000 47.391000 15.100000
2 1 1 0.000000 14.475000 47.044000 13.701000
3 1 1 0.000000 13.174000 47.788000 13.396000
4 1 1 0.000000 12.659000 47.441000 11.997000
5 1 1 0.000000 11.358000 48.186000 11.692000
6 1 1 0.000000 10.844000 47.838000 10.293000
7 1 1 0.000000 9.542000 48.583000 9.988000
8 1 1 0.000000 9.028000 48.236000 8.589000
9 1 1 0.000000 7.726000 48.980000 8.284000
10 1 1 0.000000 7.212000 48.633000 6.885000
11 1 1 0.000000 5.910000 49.378000 6.580000
12 1 1 0.000000 5.396000 49.031000 5.181000
13 1 1 0.000000 4.094000 49.775000 4.875000
14 1 1 0.000000 3.580000 49.428000 3.476000
15 1 1 0.000000 2.278000 50.172000 3.171000
16 1 1 0.000000 1.764000 49.826000 1.772000
17 1 1 0.000000 0.462000 50.570000 1.467000
18 1 1 0.000000 -0.051000 50.223000 0.068000
19 1 1 0.000000 -1.353000 50.967000 -0.237000
20 1 1 0.000000 -1.867000 50.620000 -1.636000
21 1 1 0.000000 -3.169000 51.364000 -1.941000
22 1 1 0.000000 -3.683000 51.018000 -3.340000
23 1 1 0.000000 -4.985000 51.762000 -3.646000
24 1 1 0.000000 -5.500000 51.415000 -5.044000
25 1 1 0.000000 -6.801000 52.159000 -5.350000
26 1 1 0.000000 -7.316000 51.812000 -6.749000
27 1 1 0.000000 -8.617000 52.557000 -7.054000
28 1 1 0.000000 -9.132000 52.210000 -8.453000
29 1 1 0.000000 -10.433000 52.954000 -8.758000
30 1 1 0.000000 -10.947000 52.607000 -10.157000
31 1 1 0.000000 -12.249000 53.351000 -10.462000
32 1 1 0.000000 -12.763000 53.004000 -11.861000
33 1 1 0.000000 -14.065000 53.749000 -12.166000
34 1 1 0.000000 -14.579000 53.402000 -13.565000
35 1 1 0.000000 -15.881000 54.146000 -13.871000
36 1 1 0.000000 -16.395000 53.799000 -15.270000
37 1 1 0.000000 -17.697000 54.544000 -15.575000
38 1 1 0.000000 -18.211000 54.197000 -16.974000
39 1 1 0.000000 -19.513000 54.941000 -17.279000
40 1 1 0.000000 -20.027000 54.594000 -18.678000
41 1 1 0.000000 -21.328000 55.338000 -18.983000
42 1 1 0.000000 -21.842000 54.991000 -20.382000
43 1 1 0.000000 -23.144000 55.736000 -20.687000
44 1 1 0.000000 -23.658000 55.389000 -22.086000
45 1 1 0.000000 -24.960000 56.133000 -22.391000
46 1 1 0.000000 -25.474000 55.786000 -23.790000
47 1 1 0.000000 -26.776000 56.530000 -24.096000
48 1 1 0.000000 -27.290000 56.183000 -25.495000
49 1 1 0.000000 -28.592000 56.928000 -25.800000
50 1 1 0.000000 -29.106000 56.581000 -27.199000
51 1 1 0.000000 -30.408000 57.325000 -27.504000
52 1 1 0.000000 -30.922000 56.978000 -28.902000
53 1 1 0.000000 -32.223000 57.722000 -29.208000
54 1 1 0.000000 -32.738000 57.376000 -30.607000
55 1 1 0.000000 -34.040000 58.120000 -30.912000
56 1 1 0.000000 -34.554000 57.773000 -32.311000
57 1 1 0.000000 -35.856000 58.517000 -32.616000
58 1 1 0.000000 -36.370000 58.170000 -34.015000
59 1 1 0.000000 -37.672000 58.915000 -34.321000
60 1 1 0.000000 -38.186000 58.568000 -35.720000

Bonds

1 1 1 2
2 1 2 3
3 1 3 4
4 1 4 5
5 1 5 6
6 1 6 7
7 1 7 8
8 1 8 9
9 1 9 10
10 1 10 11
11 1 11 12
12 1 12 13
13 1 13 14
14 1 14 15
15 1 15 16
16 1 16 17
17 1 17 18
18 1 18 19
19 1 19 20
20 1 20 21
21 1 21 22
22 1 22 23
23 1 23 24
24 1 24 25
25 1 25 26
26 1 26 27
27 1 27 28
28 1 28 29
29 1 29 30
30 1 30 31
31 1 31 32
32 1 32 33
33 1 33 34
34 1 34 35
35 1 35 36
36 1 36 37
37 1 37 38
38 1 38 39
39 1 39 40
40 1 40 41
41 1 41 42
42 1 42 43
43 1 43 44
44 1 44 45
45 1 45 46
46 1 46 47
47 1 47 48
48 1 48 49
49 1 49 50
50 1 50 51
51 1 51 52
52 1 52 53
53 1 53 54
54 1 54 55
55 1 55 56
56 1 56 57
57 1 57 58
58 1 58 59
59 1 59 60

Angles

1 1 1 2 3
2 1 2 3 4
3 1 3 4 5
4 1 4 5 6
5 1 5 6 7
6 1 6 7 8
7 1 7 8 9
8 1 8 9 10
9 1 9 10 11
10 1 10 11 12
11 1 11 12 13
12 1 12 13 14
13 1 13 14 15
14 1 14 15 16
15 1 15 16 17
16 1 16 17 18
17 1 17 18 19
18 1 18 19 20
19 1 19 20 21
20 1 20 21 22
21 1 21 22 23
22 1 22 23 24
23 1 23 24 25
24 1 24 25 26
25 1 25 26 27
26 1 26 27 28
27 1 27 28 29
28 1 28 29 30
29 1 29 30 31
30 1 30 31 32
31 1 31 32 33
32 1 32 33 34
33 1 33 34 35
34 1 34 35 36
35 1 35 36 37
36 1 36 37 38
37 1 37 38 39
38 1 38 39 40
39 1 39 40 41
40 1 40 41 42
41 1 41 42 43
42 1 42 43 44
43 1 43 44 45
44 1 44 45 46
45 1 45 46 47
46 1 46 47 48
47 1 47 48 49
48 1 48 49 50
49 1 49 50 51
50 1 50 51 52
51 1 51 52 53
52 1 52 53 54
53 1 53 54 55
54 1 54 55 56
55 1 55 56 57
56 1 56 57 58
57 1 57 58 59
58 1 58 59 60
 
