LAMMPS data file via write_data, version 30 Oct 2014, timestep = 1000003

60 atoms
1 atom types
59 bonds
1 bond types
58 angles
1 angle types

-8.0000000000000000e+01 8.0000000000000000e+01 xlo xhi
-8.0000000000000000e+01 8.0000000000000000e+01 ylo yhi
-8.0000000000000000e+01 8.0000000000000000e+01 zlo zhi

Masses

1 16.0427

Pair Coeffs # lj/cut

1 0.13986 3.73

Bond Coeffs # harmonic

1 400 1.53

Angle Coeffs # harmonic

1 55.172 111

Atoms # full

60 1 1 0.0000000000000000e+00 2.2831794011174829e+00 -9.8893165882843341e+00 -1.6541379455124499e+00 0 0 0
59 1 1 0.0000000000000000e+00 3.2153840087025332e+00 -9.0568946997497086e+00 -7.0371600321590677e-01 0 0 0
58 1 1 0.0000000000000000e+00 2.2939620457133283e+00 -7.9752734743439122e+00 -1.4276266774199475e-01 0 0 0
57 1 1 0.0000000000000000e+00 1.9899382465393649e+00 -7.0105856174059973e+00 -1.2521159741292869e+00 0 0 0
56 1 1 0.0000000000000000e+00 5.5983072332145689e-01 -6.5970815397263722e+00 -1.4057782795624438e+00 0 0 0
53 1 1 0.0000000000000000e+00 1.8841011643500396e+00 -3.4736663746337637e+00 -3.0667960697786412e+00 0 0 0
52 1 1 0.0000000000000000e+00 7.0589212165006310e-01 -2.5644838489563764e+00 -2.7327948810200122e+00 0 0 0
51 1 1 0.0000000000000000e+00 1.0669921967722862e+00 -1.0678178007595989e+00 -2.7036926089559907e+00 0 0 0
54 1 1 0.0000000000000000e+00 1.8172813990457906e+00 -4.5003778546149267e+00 -1.9987733082500767e+00 0 0 0
55 1 1 0.0000000000000000e+00 5.2524452052293713e-01 -5.3161100315566765e+00 -2.2552907755133722e+00 0 0 0
7 1 1 0.0000000000000000e+00 -3.0646970881921685e+00 7.6462494461828268e+00 -2.9922150890721801e+00 0 0 0
6 1 1 0.0000000000000000e+00 -2.3931187802083209e+00 8.7374098608748483e+00 -2.1474129777001294e+00 0 0 0
5 1 1 0.0000000000000000e+00 -3.1073160379708229e+00 8.9212179633006770e+00 -8.3299741056455168e-01 0 0 0
12 1 1 0.0000000000000000e+00 -6.3534872422357846e+00 4.4957932970594214e+00 4.0248651520654471e-01 0 0 0
11 1 1 0.0000000000000000e+00 -5.1735312372430871e+00 5.3131509712137301e+00 -1.5907590022141718e-01 0 0 0
10 1 1 0.0000000000000000e+00 -5.6780210498577235e+00 6.0196477693218036e+00 -1.4564962259987613e+00 0 0 0
9 1 1 0.0000000000000000e+00 -4.6763014234028688e+00 5.8376588089565615e+00 -2.5570409587501421e+00 0 0 0
8 1 1 0.0000000000000000e+00 -3.2924463497722525e+00 6.3595699174303331e+00 -2.1573847268836901e+00 0 0 0
46 1 1 0.0000000000000000e+00 2.3571416177467888e-01 3.5590664454000485e+00 -4.1057064044655620e+00 0 0 0
45 1 1 0.0000000000000000e+00 4.3056387727770584e-01 5.0468388359583312e+00 -3.7040058515655061e+00 0 0 0
47 1 1 0.0000000000000000e+00 -1.2349827479036490e+00 3.2724772344567534e+00 -4.0467440813180913e+00 0 0 0
48 1 1 0.0000000000000000e+00 -1.4809456517337152e+00 1.8604124661206189e+00 -3.4940600549210323e+00 0 0 0
43 1 1 0.0000000000000000e+00 1.7801355058109651e+00 4.2363675044454343e+00 -1.9079756634818887e+00 0 0 0
44 1 1 0.0000000000000000e+00 5.9728953271744945e-01 5.2178913043468409e+00 -2.1984044234747562e+00 0 0 0
42 1 1 0.0000000000000000e+00 2.0823298426416468e+00 3.9870960235113704e+00 -4.2672794676179315e-01 0 0 0
4 1 1 0.0000000000000000e+00 -2.0873275486920755e+00 8.8683927811286161e+00 3.3129313554059436e-01 0 0 0
3 1 1 0.0000000000000000e+00 -7.3528752152530796e-01 9.2039122471254213e+00 -2.8877615925324684e-01 0 0 0
2 1 1 0.0000000000000000e+00 4.3677639584653621e-01 9.2940540014432749e+00 7.6583785245473268e-01 0 0 0
1 1 1 0.0000000000000000e+00 1.4446266765967906e+00 1.0403330660170448e+01 4.5566871801871084e-01 0 0 0
25 1 1 0.0000000000000000e+00 8.7580535401682327e-02 -5.7823095484081737e+00 4.5217105883918300e+00 0 0 0
24 1 1 0.0000000000000000e+00 -7.5252870631849711e-01 -4.8498196725841627e+00 3.6854139199893914e+00 0 0 0
27 1 1 0.0000000000000000e+00 1.8975070024619656e+00 -7.4836847069853620e+00 4.1010351043950104e+00 0 0 0
28 1 1 0.0000000000000000e+00 3.4204495530674217e+00 -7.6875459834085298e+00 3.6966498497540234e+00 0 0 0
26 1 1 0.0000000000000000e+00 1.4740122963733349e+00 -5.9642136189667623e+00 3.8541348324260940e+00 0 0 0
19 1 1 0.0000000000000000e+00 -3.0313103490678714e+00 -1.8955651281082124e+00 1.7757895286770355e+00 0 0 0
18 1 1 0.0000000000000000e+00 -3.7421497121918428e+00 -7.9423380529487841e-01 9.8636121060566062e-01 0 0 0
20 1 1 0.0000000000000000e+00 -1.6788200703623528e+00 -2.0610984493248807e+00 1.2743285594927012e+00 0 0 0
23 1 1 0.0000000000000000e+00 -5.6179743820729761e-03 -4.2382408584074618e+00 2.5170285321326542e+00 0 0 0
21 1 1 0.0000000000000000e+00 -1.2960703830444358e+00 -3.3704096997506374e+00 5.2048535040994937e-01 0 0 0
22 1 1 0.0000000000000000e+00 -7.8262856736203412e-01 -4.5924925583585328e+00 1.2296597754485161e+00 0 0 0
50 1 1 0.0000000000000000e+00 -1.8910328657120246e-01 -2.1435933244553251e-01 -2.4811712296772845e+00 0 0 0
29 1 1 0.0000000000000000e+00 4.2831484575665426e+00 -6.7631760594151169e+00 4.5719076673418888e+00 0 0 0
31 1 1 0.0000000000000000e+00 5.0491723633249430e+00 -5.6741337006845596e+00 2.5260890721836806e+00 0 0 0
30 1 1 0.0000000000000000e+00 5.5030638445060642e+00 -6.3497649339006053e+00 3.8314264213166744e+00 0 0 0
32 1 1 0.0000000000000000e+00 4.7830788762052272e+00 -4.2209064678449169e+00 2.7614119336993785e+00 0 0 0
33 1 1 0.0000000000000000e+00 3.4362279179312876e+00 -3.8086197377932729e+00 2.0610052134674786e+00 0 0 0
34 1 1 0.0000000000000000e+00 3.5731331859093531e+00 -3.0084608410676843e+00 7.6237659082550879e-01 0 0 0
17 1 1 0.0000000000000000e+00 -2.9198162273523671e+00 5.3382261628259220e-01 8.9124575813094686e-01 0 0 0
14 1 1 0.0000000000000000e+00 -4.6192786081774360e+00 2.9149860616963115e+00 5.7051939013308184e-02 0 0 0
16 1 1 0.0000000000000000e+00 -3.1052768040718846e+00 1.0032794280881248e+00 -6.0995486785385067e-01 0 0 0
15 1 1 0.0000000000000000e+00 -4.4623703945168876e+00 1.6363614751383866e+00 -7.9599885620791744e-01 0 0 0
13 1 1 0.0000000000000000e+00 -5.9749816570073628e+00 3.0533785951610164e+00 6.5782941308441079e-01 0 0 0
49 1 1 0.0000000000000000e+00 -1.1778638423220554e-01 1.2120803444692871e+00 -3.2203311895443449e+00 0 0 0
41 1 1 0.0000000000000000e+00 8.0832468448212003e-01 3.3740391069311060e+00 2.4192222143720360e-01 0 0 0
39 1 1 0.0000000000000000e+00 2.6242651276563689e+00 2.5937071578048778e+00 1.7326107188517250e+00 0 0 0
38 1 1 0.0000000000000000e+00 2.8207996355172793e+00 1.1141922481556703e+00 2.0762221285051536e+00 0 0 0
36 1 1 0.0000000000000000e+00 2.1874210172396826e+00 -1.1306305334489704e+00 1.3279623658625404e+00 0 0 0
35 1 1 0.0000000000000000e+00 3.6726886519831239e+00 -1.4624317976712862e+00 1.0519318533088415e+00 0 0 0
40 1 1 0.0000000000000000e+00 1.1233784511158031e+00 2.7403926766573585e+00 1.5351506156649037e+00 0 0 0
37 1 1 0.0000000000000000e+00 1.8617083822529734e+00 3.4692801506911336e-01 1.2943111457592467e+00 0 0 0

Velocities

60 -5.8808178320281690e-04 2.1505930070011173e-03 3.3324867396341291e-03
59 -2.0893980743715624e-03 7.8378605891736845e-04 2.5169098064443118e-03
58 -6.4342055505403938e-03 3.4760887757187935e-03 -2.9285600298711504e-03
57 1.1375594251294380e-03 5.2556388781054009e-03 5.2475144244877384e-03
56 7.2907173046648129e-03 4.5773195357261369e-03 -2.6756401032475378e-04
53 -8.2941367271520438e-05 6.5174527249214284e-03 3.2962138396635640e-03
52 -6.7320753352821030e-03 -4.8863236627188786e-03 -5.2192700354536190e-03
51 3.9340781734085910e-03 -7.7147032034776970e-04 1.4879933441930299e-03
54 1.9308650847856495e-04 -1.8653355118474495e-03 -3.8954339244328786e-03
55 3.8313652582116727e-03 5.9540781746080899e-03 3.4924316054402694e-03
7 -4.1844813983590917e-03 3.5084465542348019e-03 3.4052600885021403e-03
6 -2.6607208703696879e-03 -1.5532728966484056e-04 -2.7824510827484869e-03
5 4.7826501144043387e-03 -3.4399359292277914e-03 -5.3439875528046195e-03
12 1.3680814679640709e-03 -4.5042992048933885e-03 -3.6550831988833277e-03
11 4.4462628469887164e-03 1.6381317183711765e-03 4.5319451867414072e-04
10 1.4842553365160632e-04 7.9633459287891740e-04 -3.0556666898343701e-04
9 -3.1198339301228917e-03 2.2414142132805084e-03 -3.8125771177160649e-03
8 1.9196472506395868e-03 6.0868743853917124e-03 8.7079679612188897e-03
46 -5.1404467965206349e-03 -4.5911016818776657e-03 -3.6590022118794942e-03
45 -1.3348711478457917e-03 4.2713377578148179e-03 -2.3281586755120823e-03
47 2.9157919128443466e-03 4.8185344250592111e-03 8.6522171229830493e-03
48 4.7277190695092777e-03 -8.0752965570001101e-03 -1.1261480910752656e-03
43 2.6730465691792763e-03 1.1397588085383067e-03 -3.9276413478507785e-03
44 -7.2533257589117578e-03 -3.6657392574260044e-03 3.1905272468147096e-03
42 2.3236647098616682e-03 -2.4573289179424455e-03 1.4277525475619411e-03
4 2.6149340386179835e-04 -9.6605533259326516e-04 6.4700305369269741e-03
3 3.3947752335728399e-03 1.6834618258927420e-03 2.8666219255407280e-03
2 1.1229897562378063e-03 -1.3127776232287147e-03 -4.5979625531714302e-03
1 -6.8378385805092164e-04 3.9061864771842758e-04 5.1592516510717851e-03
25 -1.5650462716685590e-03 1.0797545240152921e-03 3.0832171943779999e-03
24 4.7789089608459576e-03 1.2179286159409971e-03 4.5809876061377224e-03
27 -1.0380193249820435e-03 1.7776317463105238e-03 -2.3640458844508211e-03
28 2.2635955582427777e-03 -2.9209943636747736e-03 -1.7034185796699017e-03
26 1.9635727529694041e-03 -5.8739811451936842e-04 -2.5742600582720995e-03
19 -1.1324077243008634e-03 -2.7971552355139163e-04 -5.6099099606046407e-03
18 -1.8752262597244895e-03 6.0599599041370668e-04 -2.4204291385070912e-03
20 -6.4810305455274648e-03 6.4609325709578957e-04 -9.8697089602190055e-04
23 -1.7338695177180976e-03 1.6800333125549715e-03 -1.4752500152005574e-03
21 2.6795436730150577e-03 8.7051384293948748e-04 8.7309291891269764e-03
22 6.0428920593661091e-07 -3.1622943260853375e-03 -1.5089746228421519e-03
50 -4.7702119108339533e-03 7.9349005278429415e-05 -5.5199357789108491e-03
29 8.8334348856419092e-04 -2.0533297140007925e-03 3.9768825244108257e-03
31 -1.8465759935901117e-03 -4.8871908962484648e-03 3.1177837890339986e-05
30 -1.7670791252447553e-03 4.3074415257932813e-04 2.3737811302533699e-03
32 2.5971928588556380e-03 5.7032462430005494e-05 -4.7317036547203005e-04
33 2.9490021510016609e-03 1.1632376740204054e-05 7.1921862140834599e-04
34 -5.9807981399843573e-03 1.0510881868777721e-02 4.9836683592965657e-03
17 -2.7224794163842260e-03 -4.9022889937881302e-03 -4.1185825943455909e-03
14 -2.4715212016700113e-04 -1.0584616004994576e-03 1.9462105680631086e-03
16 4.3524549823684188e-03 -8.7049500519564523e-04 -3.8776367331405893e-03
15 5.8345891386870036e-04 -1.8822353857806623e-03 3.1389225747896652e-03
13 3.4467686230484551e-03 1.6498753613761062e-03 -3.4614265473149192e-03
49 -2.1798374188105479e-03 -4.0769264636186936e-03 7.0721026840862020e-03
41 -6.8085935108581283e-03 2.3075470030069358e-04 1.3285677410982922e-03
39 1.4869692959311022e-03 -2.4136535208001535e-04 -4.1444001615182887e-03
38 -4.9293409143397549e-03 -1.0856766001288046e-03 -2.0090893036150271e-03
36 3.3620378839833970e-04 -4.9990731300757069e-03 -4.2129877316559854e-03
35 6.8008214988883372e-03 2.1377521160761141e-03 -1.4260365966563668e-03
40 7.1163089334256961e-03 -6.0423858606575677e-03 -3.8244221331264787e-03
37 -3.3282702422545562e-03 -2.5350207983351990e-03 -6.1116857880641265e-03

Bonds

1 1 59 60
2 1 58 59
3 1 57 58
4 1 56 57
5 1 53 54
6 1 52 53
7 1 51 52
8 1 54 55
9 1 55 56
10 1 7 8
11 1 6 7
12 1 5 6
13 1 12 13
14 1 11 12
15 1 10 11
16 1 9 10
17 1 8 9
18 1 46 47
19 1 45 46
20 1 47 48
21 1 48 49
22 1 43 44
23 1 44 45
24 1 42 43
25 1 4 5
26 1 3 4
27 1 2 3
28 1 1 2
29 1 25 26
30 1 24 25
31 1 27 28
32 1 28 29
33 1 26 27
34 1 19 20
35 1 18 19
36 1 20 21
37 1 23 24
38 1 21 22
39 1 22 23
40 1 50 51
41 1 29 30
42 1 31 32
43 1 30 31
44 1 32 33
45 1 33 34
46 1 34 35
47 1 17 18
48 1 14 15
49 1 16 17
50 1 15 16
51 1 13 14
52 1 49 50
53 1 41 42
54 1 39 40
55 1 38 39
56 1 36 37
57 1 35 36
58 1 40 41
59 1 37 38

Angles

1 1 58 59 60
2 1 57 58 59
3 1 56 57 58
4 1 55 56 57
5 1 52 53 54
6 1 51 52 53
7 1 50 51 52
8 1 53 54 55
9 1 54 55 56
10 1 6 7 8
11 1 5 6 7
12 1 4 5 6
13 1 11 12 13
14 1 10 11 12
15 1 9 10 11
16 1 8 9 10
17 1 7 8 9
18 1 45 46 47
19 1 44 45 46
20 1 46 47 48
21 1 47 48 49
22 1 42 43 44
23 1 43 44 45
24 1 41 42 43
25 1 3 4 5
26 1 2 3 4
27 1 1 2 3
28 1 24 25 26
29 1 23 24 25
30 1 26 27 28
31 1 27 28 29
32 1 25 26 27
33 1 18 19 20
34 1 17 18 19
35 1 19 20 21
36 1 22 23 24
37 1 20 21 22
38 1 21 22 23
39 1 49 50 51
40 1 28 29 30
41 1 30 31 32
42 1 29 30 31
43 1 31 32 33
44 1 32 33 34
45 1 33 34 35
46 1 16 17 18
47 1 13 14 15
48 1 15 16 17
49 1 14 15 16
50 1 12 13 14
51 1 48 49 50
52 1 40 41 42
53 1 38 39 40
54 1 37 38 39
55 1 35 36 37
56 1 34 35 36
57 1 39 40 41
58 1 36 37 38
